+ 0.042795 7 20 tcp 40 ------- 3 7.0 6.0 0 0
- 0.042795 7 20 tcp 40 ------- 3 7.0 6.0 0 0
r 0.072798 7 20 tcp 40 ------- 3 7.0 6.0 0 0
+ 0.072798 20 21 tcp 40 ------- 3 7.0 6.0 0 0
- 0.072798 20 21 tcp 40 ------- 3 7.0 6.0 0 0
r 0.088512 20 21 tcp 40 ------- 3 7.0 6.0 0 0
+ 0.088512 21 6 tcp 40 ------- 3 7.0 6.0 0 0
- 0.088512 21 6 tcp 40 ------- 3 7.0 6.0 0 0
+ 0.094139 19 20 tcp 40 ------- 9 19.0 18.0 0 1
- 0.094139 19 20 tcp 40 ------- 9 19.0 18.0 0 1
+ 0.113808 11 20 tcp 40 ------- 5 11.0 10.0 0 2
- 0.113808 11 20 tcp 40 ------- 5 11.0 10.0 0 2
r 0.118515 21 6 tcp 40 ------- 3 7.0 6.0 0 0
+ 0.118515 6 21 ack 40 ------- 3 6.0 7.0 0 3
- 0.118515 6 21 ack 40 ------- 3 6.0 7.0 0 3
r 0.148518 6 21 ack 40 ------- 3 6.0 7.0 0 3
+ 0.148518 21 20 ack 40 ------- 3 6.0 7.0 0 3
- 0.148518 21 20 ack 40 ------- 3 6.0 7.0 0 3
r 0.163811 11 20 tcp 40 ------- 5 11.0 10.0 0 2
+ 0.163811 20 21 tcp 40 ------- 5 11.0 10.0 0 2
- 0.163811 20 21 tcp 40 ------- 5 11.0 10.0 0 2
+ 0.164145 5 20 tcp 40 ------- 2 5.0 4.0 0 4
- 0.164145 5 20 tcp 40 ------- 2 5.0 4.0 0 4
r 0.164233 21 20 ack 40 ------- 3 6.0 7.0 0 3
+ 0.164233 20 7 ack 40 ------- 3 6.0 7.0 0 3
- 0.164233 20 7 ack 40 ------- 3 6.0 7.0 0 3
+ 0.174805 17 20 tcp 40 ------- 8 17.0 16.0 0 5
- 0.174805 17 20 tcp 40 ------- 8 17.0 16.0 0 5
r 0.179526 20 21 tcp 40 ------- 5 11.0 10.0 0 2
+ 0.179526 21 10 tcp 40 ------- 5 11.0 10.0 0 2
- 0.179526 21 10 tcp 40 ------- 5 11.0 10.0 0 2
r 0.184142 19 20 tcp 40 ------- 9 19.0 18.0 0 1
+ 0.184142 20 21 tcp 40 ------- 9 19.0 18.0 0 1
- 0.184142 20 21 tcp 40 ------- 9 19.0 18.0 0 1
r 0.184149 5 20 tcp 40 ------- 2 5.0 4.0 0 4
+ 0.184149 20 21 tcp 40 ------- 2 5.0 4.0 0 4
- 0.189856 20 21 tcp 40 ------- 2 5.0 4.0 0 4
r 0.194236 20 7 ack 40 ------- 3 6.0 7.0 0 3
+ 0.194236 7 20 tcp 1040 ------- 3 7.0 6.0 1 6
- 0.194236 7 20 tcp 1040 ------- 3 7.0 6.0 1 6
+ 0.194236 7 20 tcp 1040 ------- 3 7.0 6.0 2 7
- 0.194319 7 20 tcp 1040 ------- 3 7.0 6.0 2 7
r 0.199856 20 21 tcp 40 ------- 9 19.0 18.0 0 1
+ 0.199856 21 18 tcp 40 ------- 9 19.0 18.0 0 1
- 0.199856 21 18 tcp 40 ------- 9 19.0 18.0 0 1
r 0.205571 20 21 tcp 40 ------- 2 5.0 4.0 0 4
+ 0.205571 21 4 tcp 40 ------- 2 5.0 4.0 0 4
- 0.205571 21 4 tcp 40 ------- 2 5.0 4.0 0 4
r 0.224319 7 20 tcp 1040 ------- 3 7.0 6.0 1 6
+ 0.224319 20 21 tcp 1040 ------- 3 7.0 6.0 1 6
- 0.224319 20 21 tcp 1040 ------- 3 7.0 6.0 1 6
r 0.224402 7 20 tcp 1040 ------- 3 7.0 6.0 2 7
+ 0.224402 20 21 tcp 1040 ------- 3 7.0 6.0 2 7
r 0.225574 21 4 tcp 40 ------- 2 5.0 4.0 0 4
+ 0.225574 4 21 ack 40 ------- 2 4.0 5.0 0 8
- 0.225574 4 21 ack 40 ------- 2 4.0 5.0 0 8
r 0.229529 21 10 tcp 40 ------- 5 11.0 10.0 0 2
+ 0.229529 10 21 ack 40 ------- 5 10.0 11.0 0 9
- 0.229529 10 21 ack 40 ------- 5 10.0 11.0 0 9
r 0.245577 4 21 ack 40 ------- 2 4.0 5.0 0 8
+ 0.245577 21 20 ack 40 ------- 2 4.0 5.0 0 8
- 0.245577 21 20 ack 40 ------- 2 4.0 5.0 0 8
r 0.254809 17 20 tcp 40 ------- 8 17.0 16.0 0 5
+ 0.254809 20 21 tcp 40 ------- 8 17.0 16.0 0 5
r 0.261291 21 20 ack 40 ------- 2 4.0 5.0 0 8
+ 0.261291 20 5 ack 40 ------- 2 4.0 5.0 0 8
- 0.261291 20 5 ack 40 ------- 2 4.0 5.0 0 8
r 0.279532 10 21 ack 40 ------- 5 10.0 11.0 0 9
+ 0.279532 21 20 ack 40 ------- 5 10.0 11.0 0 9
- 0.279532 21 20 ack 40 ------- 5 10.0 11.0 0 9
r 0.281295 20 5 ack 40 ------- 2 4.0 5.0 0 8
+ 0.281295 5 20 tcp 1040 ------- 2 5.0 4.0 1 10
- 0.281295 5 20 tcp 1040 ------- 2 5.0 4.0 1 10
+ 0.281295 5 20 tcp 1040 ------- 2 5.0 4.0 2 11
- 0.281378 5 20 tcp 1040 ------- 2 5.0 4.0 2 11
r 0.28986 21 18 tcp 40 ------- 9 19.0 18.0 0 1
+ 0.28986 18 21 ack 40 ------- 9 18.0 19.0 0 12
- 0.28986 18 21 ack 40 ------- 9 18.0 19.0 0 12
r 0.295246 21 20 ack 40 ------- 5 10.0 11.0 0 9
+ 0.295246 20 11 ack 40 ------- 5 10.0 11.0 0 9
- 0.295246 20 11 ack 40 ------- 5 10.0 11.0 0 9
r 0.301378 5 20 tcp 1040 ------- 2 5.0 4.0 1 10
+ 0.301378 20 21 tcp 1040 ------- 2 5.0 4.0 1 10
r 0.301461 5 20 tcp 1040 ------- 2 5.0 4.0 2 11
+ 0.301461 20 21 tcp 1040 ------- 2 5.0 4.0 2 11
+ 0.309079 1 20 tcp 40 ------- 0 1.0 0.0 0 13
- 0.309079 1 20 tcp 40 ------- 0 1.0 0.0 0 13
r 0.309082 1 20 tcp 40 ------- 0 1.0 0.0 0 13
+ 0.309082 20 21 tcp 40 ------- 0 1.0 0.0 0 13
r 0.34525 20 11 ack 40 ------- 5 10.0 11.0 0 9
+ 0.34525 11 20 tcp 1040 ------- 5 11.0 10.0 1 14
- 0.34525 11 20 tcp 1040 ------- 5 11.0 10.0 1 14
+ 0.34525 11 20 tcp 1040 ------- 5 11.0 10.0 2 15
- 0.345333 11 20 tcp 1040 ------- 5 11.0 10.0 2 15
- 0.372891 20 21 tcp 1040 ------- 3 7.0 6.0 2 7
r 0.379863 18 21 ack 40 ------- 9 18.0 19.0 0 12
+ 0.379863 21 20 ack 40 ------- 9 18.0 19.0 0 12
- 0.379863 21 20 ack 40 ------- 9 18.0 19.0 0 12
r 0.382891 20 21 tcp 1040 ------- 3 7.0 6.0 1 6
+ 0.382891 21 6 tcp 1040 ------- 3 7.0 6.0 1 6
- 0.382891 21 6 tcp 1040 ------- 3 7.0 6.0 1 6
r 0.395333 11 20 tcp 1040 ------- 5 11.0 10.0 1 14
+ 0.395333 20 21 tcp 1040 ------- 5 11.0 10.0 1 14
r 0.395416 11 20 tcp 1040 ------- 5 11.0 10.0 2 15
+ 0.395416 20 21 tcp 1040 ------- 5 11.0 10.0 2 15
r 0.395577 21 20 ack 40 ------- 9 18.0 19.0 0 12
+ 0.395577 20 19 ack 40 ------- 9 18.0 19.0 0 12
- 0.395577 20 19 ack 40 ------- 9 18.0 19.0 0 12
r 0.412974 21 6 tcp 1040 ------- 3 7.0 6.0 1 6
+ 0.412974 6 21 ack 40 ------- 3 6.0 7.0 1 16
- 0.412974 6 21 ack 40 ------- 3 6.0 7.0 1 16
+ 0.423657 15 20 tcp 40 ------- 7 15.0 14.0 0 17
- 0.423657 15 20 tcp 40 ------- 7 15.0 14.0 0 17
r 0.442977 6 21 ack 40 ------- 3 6.0 7.0 1 16
+ 0.442977 21 20 ack 40 ------- 3 6.0 7.0 1 16
- 0.442977 21 20 ack 40 ------- 3 6.0 7.0 1 16
r 0.458691 21 20 ack 40 ------- 3 6.0 7.0 1 16
+ 0.458691 20 7 ack 40 ------- 3 6.0 7.0 1 16
- 0.458691 20 7 ack 40 ------- 3 6.0 7.0 1 16
r 0.48558 20 19 ack 40 ------- 9 18.0 19.0 0 12
+ 0.48558 19 20 tcp 1040 ------- 9 19.0 18.0 1 18
- 0.48558 19 20 tcp 1040 ------- 9 19.0 18.0 1 18
+ 0.48558 19 20 tcp 1040 ------- 9 19.0 18.0 2 19
- 0.485663 19 20 tcp 1040 ------- 9 19.0 18.0 2 19
r 0.488694 20 7 ack 40 ------- 3 6.0 7.0 1 16
+ 0.488694 7 20 tcp 1040 ------- 3 7.0 6.0 3 20
- 0.488694 7 20 tcp 1040 ------- 3 7.0 6.0 3 20
+ 0.488694 7 20 tcp 1040 ------- 3 7.0 6.0 4 21
- 0.488778 7 20 tcp 1040 ------- 3 7.0 6.0 4 21
r 0.49366 15 20 tcp 40 ------- 7 15.0 14.0 0 17
+ 0.49366 20 21 tcp 40 ------- 7 15.0 14.0 0 17
r 0.518778 7 20 tcp 1040 ------- 3 7.0 6.0 3 20
+ 0.518778 20 21 tcp 1040 ------- 3 7.0 6.0 3 20
r 0.518861 7 20 tcp 1040 ------- 3 7.0 6.0 4 21
+ 0.518861 20 21 tcp 1040 ------- 3 7.0 6.0 4 21
- 0.521462 20 21 tcp 40 ------- 8 17.0 16.0 0 5
- 0.527176 20 21 tcp 1040 ------- 2 5.0 4.0 1 10
r 0.531462 20 21 tcp 1040 ------- 3 7.0 6.0 2 7
+ 0.531462 21 6 tcp 1040 ------- 3 7.0 6.0 2 7
- 0.531462 21 6 tcp 1040 ------- 3 7.0 6.0 2 7
r 0.537176 20 21 tcp 40 ------- 8 17.0 16.0 0 5
+ 0.537176 21 16 tcp 40 ------- 8 17.0 16.0 0 5
- 0.537176 21 16 tcp 40 ------- 8 17.0 16.0 0 5
r 0.561545 21 6 tcp 1040 ------- 3 7.0 6.0 2 7
+ 0.561545 6 21 ack 40 ------- 3 6.0 7.0 2 22
- 0.561545 6 21 ack 40 ------- 3 6.0 7.0 2 22
r 0.575663 19 20 tcp 1040 ------- 9 19.0 18.0 1 18
+ 0.575663 20 21 tcp 1040 ------- 9 19.0 18.0 1 18
r 0.575747 19 20 tcp 1040 ------- 9 19.0 18.0 2 19
+ 0.575747 20 21 tcp 1040 ------- 9 19.0 18.0 2 19
r 0.591548 6 21 ack 40 ------- 3 6.0 7.0 2 22
+ 0.591548 21 20 ack 40 ------- 3 6.0 7.0 2 22
- 0.591548 21 20 ack 40 ------- 3 6.0 7.0 2 22
r 0.607263 21 20 ack 40 ------- 3 6.0 7.0 2 22
+ 0.607263 20 7 ack 40 ------- 3 6.0 7.0 2 22
- 0.607263 20 7 ack 40 ------- 3 6.0 7.0 2 22
r 0.617179 21 16 tcp 40 ------- 8 17.0 16.0 0 5
+ 0.617179 16 21 ack 40 ------- 8 16.0 17.0 0 23
- 0.617179 16 21 ack 40 ------- 8 16.0 17.0 0 23
r 0.637266 20 7 ack 40 ------- 3 6.0 7.0 2 22
+ 0.637266 7 20 tcp 1040 ------- 3 7.0 6.0 5 24
- 0.637266 7 20 tcp 1040 ------- 3 7.0 6.0 5 24
+ 0.637266 7 20 tcp 1040 ------- 3 7.0 6.0 6 25
- 0.637349 7 20 tcp 1040 ------- 3 7.0 6.0 6 25
+ 0.640068 9 20 tcp 40 ------- 4 9.0 8.0 0 26
- 0.640068 9 20 tcp 40 ------- 4 9.0 8.0 0 26
+ 0.641295 5 20 tcp 1040 ---A--- 2 5.0 4.0 1 27
- 0.641295 5 20 tcp 1040 ---A--- 2 5.0 4.0 1 27
r 0.661378 5 20 tcp 1040 ---A--- 2 5.0 4.0 1 27
+ 0.661378 20 21 tcp 1040 ---A--- 2 5.0 4.0 1 27
r 0.667349 7 20 tcp 1040 ------- 3 7.0 6.0 5 24
+ 0.667349 20 21 tcp 1040 ------- 3 7.0 6.0 5 24
r 0.667432 7 20 tcp 1040 ------- 3 7.0 6.0 6 25
+ 0.667432 20 21 tcp 1040 ------- 3 7.0 6.0 6 25
- 0.675748 20 21 tcp 1040 ------- 2 5.0 4.0 2 11
r 0.680071 9 20 tcp 40 ------- 4 9.0 8.0 0 26
+ 0.680071 20 21 tcp 40 ------- 4 9.0 8.0 0 26
r 0.685748 20 21 tcp 1040 ------- 2 5.0 4.0 1 10
+ 0.685748 21 4 tcp 1040 ------- 2 5.0 4.0 1 10
- 0.685748 21 4 tcp 1040 ------- 2 5.0 4.0 1 10
r 0.697183 16 21 ack 40 ------- 8 16.0 17.0 0 23
+ 0.697183 21 20 ack 40 ------- 8 16.0 17.0 0 23
- 0.697183 21 20 ack 40 ------- 8 16.0 17.0 0 23
r 0.705831 21 4 tcp 1040 ------- 2 5.0 4.0 1 10
+ 0.705831 4 21 ack 40 ------- 2 4.0 5.0 1 28
- 0.705831 4 21 ack 40 ------- 2 4.0 5.0 1 28
r 0.712897 21 20 ack 40 ------- 8 16.0 17.0 0 23
+ 0.712897 20 17 ack 40 ------- 8 16.0 17.0 0 23
- 0.712897 20 17 ack 40 ------- 8 16.0 17.0 0 23
r 0.725834 4 21 ack 40 ------- 2 4.0 5.0 1 28
+ 0.725834 21 20 ack 40 ------- 2 4.0 5.0 1 28
- 0.725834 21 20 ack 40 ------- 2 4.0 5.0 1 28
r 0.741548 21 20 ack 40 ------- 2 4.0 5.0 1 28
+ 0.741548 20 5 ack 40 ------- 2 4.0 5.0 1 28
- 0.741548 20 5 ack 40 ------- 2 4.0 5.0 1 28
r 0.761552 20 5 ack 40 ------- 2 4.0 5.0 1 28
+ 0.761552 5 20 tcp 1040 ------- 2 5.0 4.0 2 29
- 0.761552 5 20 tcp 1040 ------- 2 5.0 4.0 2 29
+ 0.761552 5 20 tcp 1040 ------- 2 5.0 4.0 3 30
- 0.761635 5 20 tcp 1040 ------- 2 5.0 4.0 3 30
r 0.781635 5 20 tcp 1040 ------- 2 5.0 4.0 2 29
+ 0.781635 20 21 tcp 1040 ------- 2 5.0 4.0 2 29
r 0.781718 5 20 tcp 1040 ------- 2 5.0 4.0 3 30
+ 0.781718 20 21 tcp 1040 ------- 2 5.0 4.0 3 30
r 0.7929 20 17 ack 40 ------- 8 16.0 17.0 0 23
+ 0.7929 17 20 tcp 1040 ------- 8 17.0 16.0 1 31
- 0.7929 17 20 tcp 1040 ------- 8 17.0 16.0 1 31
+ 0.7929 17 20 tcp 1040 ------- 8 17.0 16.0 2 32
- 0.792983 17 20 tcp 1040 ------- 8 17.0 16.0 2 32
- 0.824319 20 21 tcp 40 ------- 0 1.0 0.0 0 13
- 0.830033 20 21 tcp 1040 ------- 5 11.0 10.0 1 14
r 0.834319 20 21 tcp 1040 ------- 2 5.0 4.0 2 11
+ 0.834319 21 4 tcp 1040 ------- 2 5.0 4.0 2 11
- 0.834319 21 4 tcp 1040 ------- 2 5.0 4.0 2 11
+ 0.836324 3 20 tcp 40 ------- 1 3.0 2.0 0 33
- 0.836324 3 20 tcp 40 ------- 1 3.0 2.0 0 33
r 0.840033 20 21 tcp 40 ------- 0 1.0 0.0 0 13
+ 0.840033 21 0 tcp 40 ------- 0 1.0 0.0 0 13
- 0.840033 21 0 tcp 40 ------- 0 1.0 0.0 0 13
r 0.840037 21 0 tcp 40 ------- 0 1.0 0.0 0 13
+ 0.840037 0 21 ack 40 ------- 0 0.0 1.0 0 34
- 0.840037 0 21 ack 40 ------- 0 0.0 1.0 0 34
r 0.84004 0 21 ack 40 ------- 0 0.0 1.0 0 34
+ 0.84004 21 20 ack 40 ------- 0 0.0 1.0 0 34
- 0.84004 21 20 ack 40 ------- 0 0.0 1.0 0 34
r 0.846327 3 20 tcp 40 ------- 1 3.0 2.0 0 33
+ 0.846327 20 21 tcp 40 ------- 1 3.0 2.0 0 33
r 0.854402 21 4 tcp 1040 ------- 2 5.0 4.0 2 11
+ 0.854402 4 21 ack 40 ------- 2 4.0 5.0 2 35
- 0.854402 4 21 ack 40 ------- 2 4.0 5.0 2 35
r 0.855754 21 20 ack 40 ------- 0 0.0 1.0 0 34
+ 0.855754 20 1 ack 40 ------- 0 0.0 1.0 0 34
- 0.855754 20 1 ack 40 ------- 0 0.0 1.0 0 34
r 0.855757 20 1 ack 40 ------- 0 0.0 1.0 0 34
+ 0.855757 1 20 tcp 1040 ------- 0 1.0 0.0 1 36
- 0.855757 1 20 tcp 1040 ------- 0 1.0 0.0 1 36
+ 0.855757 1 20 tcp 1040 ------- 0 1.0 0.0 2 37
r 0.855841 1 20 tcp 1040 ------- 0 1.0 0.0 1 36
+ 0.855841 20 21 tcp 1040 ------- 0 1.0 0.0 1 36
- 0.855841 1 20 tcp 1040 ------- 0 1.0 0.0 2 37
r 0.855924 1 20 tcp 1040 ------- 0 1.0 0.0 2 37
+ 0.855924 20 21 tcp 1040 ------- 0 1.0 0.0 2 37
+ 0.859728 13 20 tcp 40 ------- 6 13.0 12.0 0 38
- 0.859728 13 20 tcp 40 ------- 6 13.0 12.0 0 38
r 0.872983 17 20 tcp 1040 ------- 8 17.0 16.0 1 31
+ 0.872983 20 21 tcp 1040 ------- 8 17.0 16.0 1 31
r 0.873067 17 20 tcp 1040 ------- 8 17.0 16.0 2 32
+ 0.873067 20 21 tcp 1040 ------- 8 17.0 16.0 2 32
r 0.874406 4 21 ack 40 ------- 2 4.0 5.0 2 35
+ 0.874406 21 20 ack 40 ------- 2 4.0 5.0 2 35
- 0.874406 21 20 ack 40 ------- 2 4.0 5.0 2 35
r 0.89012 21 20 ack 40 ------- 2 4.0 5.0 2 35
+ 0.89012 20 5 ack 40 ------- 2 4.0 5.0 2 35
- 0.89012 20 5 ack 40 ------- 2 4.0 5.0 2 35
r 0.910123 20 5 ack 40 ------- 2 4.0 5.0 2 35
+ 0.910123 5 20 tcp 1040 ------- 2 5.0 4.0 4 39
- 0.910123 5 20 tcp 1040 ------- 2 5.0 4.0 4 39
r 0.919731 13 20 tcp 40 ------- 6 13.0 12.0 0 38
+ 0.919731 20 21 tcp 40 ------- 6 13.0 12.0 0 38
r 0.930206 5 20 tcp 1040 ------- 2 5.0 4.0 4 39
+ 0.930206 20 21 tcp 1040 ------- 2 5.0 4.0 4 39
- 0.978605 20 21 tcp 1040 ------- 5 11.0 10.0 2 15
r 0.988605 20 21 tcp 1040 ------- 5 11.0 10.0 1 14
+ 0.988605 21 10 tcp 1040 ------- 5 11.0 10.0 1 14
- 0.988605 21 10 tcp 1040 ------- 5 11.0 10.0 1 14
+ 1.03525 11 20 tcp 1040 ---A--- 5 11.0 10.0 1 40
- 1.03525 11 20 tcp 1040 ---A--- 5 11.0 10.0 1 40
r 1.038688 21 10 tcp 1040 ------- 5 11.0 10.0 1 14
+ 1.038688 10 21 ack 40 ------- 5 10.0 11.0 1 41
- 1.038688 10 21 ack 40 ------- 5 10.0 11.0 1 41
r 1.085333 11 20 tcp 1040 ---A--- 5 11.0 10.0 1 40
+ 1.085333 20 21 tcp 1040 ---A--- 5 11.0 10.0 1 40
r 1.088691 10 21 ack 40 ------- 5 10.0 11.0 1 41
+ 1.088691 21 20 ack 40 ------- 5 10.0 11.0 1 41
- 1.088691 21 20 ack 40 ------- 5 10.0 11.0 1 41
r 1.104406 21 20 ack 40 ------- 5 10.0 11.0 1 41
+ 1.104406 20 11 ack 40 ------- 5 10.0 11.0 1 41
- 1.104406 20 11 ack 40 ------- 5 10.0 11.0 1 41
- 1.127176 20 21 tcp 40 ------- 7 15.0 14.0 0 17
- 1.132891 20 21 tcp 1040 ------- 3 7.0 6.0 3 20
r 1.137176 20 21 tcp 1040 ------- 5 11.0 10.0 2 15
+ 1.137176 21 10 tcp 1040 ------- 5 11.0 10.0 2 15
- 1.137176 21 10 tcp 1040 ------- 5 11.0 10.0 2 15
r 1.142891 20 21 tcp 40 ------- 7 15.0 14.0 0 17
+ 1.142891 21 14 tcp 40 ------- 7 15.0 14.0 0 17
- 1.142891 21 14 tcp 40 ------- 7 15.0 14.0 0 17
r 1.154409 20 11 ack 40 ------- 5 10.0 11.0 1 41
+ 1.154409 11 20 tcp 1040 ------- 5 11.0 10.0 2 42
- 1.154409 11 20 tcp 1040 ------- 5 11.0 10.0 2 42
+ 1.154409 11 20 tcp 1040 ------- 5 11.0 10.0 3 43
- 1.154492 11 20 tcp 1040 ------- 5 11.0 10.0 3 43
+ 1.177266 7 20 tcp 1040 ---A--- 3 7.0 6.0 3 44
- 1.177266 7 20 tcp 1040 ---A--- 3 7.0 6.0 3 44
r 1.187259 21 10 tcp 1040 ------- 5 11.0 10.0 2 15
+ 1.187259 10 21 ack 40 ------- 5 10.0 11.0 2 45
- 1.187259 10 21 ack 40 ------- 5 10.0 11.0 2 45
r 1.204492 11 20 tcp 1040 ------- 5 11.0 10.0 2 42
+ 1.204492 20 21 tcp 1040 ------- 5 11.0 10.0 2 42
r 1.204575 11 20 tcp 1040 ------- 5 11.0 10.0 3 43
+ 1.204575 20 21 tcp 1040 ------- 5 11.0 10.0 3 43
r 1.207349 7 20 tcp 1040 ---A--- 3 7.0 6.0 3 44
+ 1.207349 20 21 tcp 1040 ---A--- 3 7.0 6.0 3 44
r 1.212894 21 14 tcp 40 ------- 7 15.0 14.0 0 17
+ 1.212894 14 21 ack 40 ------- 7 14.0 15.0 0 46
- 1.212894 14 21 ack 40 ------- 7 14.0 15.0 0 46
r 1.237263 10 21 ack 40 ------- 5 10.0 11.0 2 45
+ 1.237263 21 20 ack 40 ------- 5 10.0 11.0 2 45
- 1.237263 21 20 ack 40 ------- 5 10.0 11.0 2 45
r 1.252977 21 20 ack 40 ------- 5 10.0 11.0 2 45
+ 1.252977 20 11 ack 40 ------- 5 10.0 11.0 2 45
- 1.252977 20 11 ack 40 ------- 5 10.0 11.0 2 45
- 1.281462 20 21 tcp 1040 ------- 3 7.0 6.0 4 21
r 1.282897 14 21 ack 40 ------- 7 14.0 15.0 0 46
+ 1.282897 21 20 ack 40 ------- 7 14.0 15.0 0 46
- 1.282897 21 20 ack 40 ------- 7 14.0 15.0 0 46
r 1.291462 20 21 tcp 1040 ------- 3 7.0 6.0 3 20
+ 1.291462 21 6 tcp 1040 ------- 3 7.0 6.0 3 20
- 1.291462 21 6 tcp 1040 ------- 3 7.0 6.0 3 20
r 1.298611 21 20 ack 40 ------- 7 14.0 15.0 0 46
+ 1.298611 20 15 ack 40 ------- 7 14.0 15.0 0 46
- 1.298611 20 15 ack 40 ------- 7 14.0 15.0 0 46
r 1.30298 20 11 ack 40 ------- 5 10.0 11.0 2 45
+ 1.30298 11 20 tcp 1040 ------- 5 11.0 10.0 4 47
- 1.30298 11 20 tcp 1040 ------- 5 11.0 10.0 4 47
r 1.321545 21 6 tcp 1040 ------- 3 7.0 6.0 3 20
+ 1.321545 6 21 ack 40 ------- 3 6.0 7.0 3 48
- 1.321545 6 21 ack 40 ------- 3 6.0 7.0 3 48
r 1.351548 6 21 ack 40 ------- 3 6.0 7.0 3 48
+ 1.351548 21 20 ack 40 ------- 3 6.0 7.0 3 48
- 1.351548 21 20 ack 40 ------- 3 6.0 7.0 3 48
r 1.353063 11 20 tcp 1040 ------- 5 11.0 10.0 4 47
+ 1.353063 20 21 tcp 1040 ------- 5 11.0 10.0 4 47
r 1.367263 21 20 ack 40 ------- 3 6.0 7.0 3 48
+ 1.367263 20 7 ack 40 ------- 3 6.0 7.0 3 48
- 1.367263 20 7 ack 40 ------- 3 6.0 7.0 3 48
r 1.368614 20 15 ack 40 ------- 7 14.0 15.0 0 46
+ 1.368614 15 20 tcp 1040 ------- 7 15.0 14.0 1 49
- 1.368614 15 20 tcp 1040 ------- 7 15.0 14.0 1 49
+ 1.368614 15 20 tcp 1040 ------- 7 15.0 14.0 2 50
- 1.368698 15 20 tcp 1040 ------- 7 15.0 14.0 2 50
r 1.397266 20 7 ack 40 ------- 3 6.0 7.0 3 48
+ 1.397266 7 20 tcp 1040 ------- 3 7.0 6.0 4 51
- 1.397266 7 20 tcp 1040 ------- 3 7.0 6.0 4 51
+ 1.397266 7 20 tcp 1040 ------- 3 7.0 6.0 5 52
- 1.397349 7 20 tcp 1040 ------- 3 7.0 6.0 5 52
r 1.427349 7 20 tcp 1040 ------- 3 7.0 6.0 4 51
+ 1.427349 20 21 tcp 1040 ------- 3 7.0 6.0 4 51
r 1.427432 7 20 tcp 1040 ------- 3 7.0 6.0 5 52
+ 1.427432 20 21 tcp 1040 ------- 3 7.0 6.0 5 52
- 1.430033 20 21 tcp 1040 ------- 9 19.0 18.0 1 18
r 1.438698 15 20 tcp 1040 ------- 7 15.0 14.0 1 49
+ 1.438698 20 21 tcp 1040 ------- 7 15.0 14.0 1 49
r 1.438781 15 20 tcp 1040 ------- 7 15.0 14.0 2 50
+ 1.438781 20 21 tcp 1040 ------- 7 15.0 14.0 2 50
r 1.440033 20 21 tcp 1040 ------- 3 7.0 6.0 4 21
+ 1.440033 21 6 tcp 1040 ------- 3 7.0 6.0 4 21
- 1.440033 21 6 tcp 1040 ------- 3 7.0 6.0 4 21
r 1.470117 21 6 tcp 1040 ------- 3 7.0 6.0 4 21
+ 1.470117 6 21 ack 40 ------- 3 6.0 7.0 4 53
- 1.470117 6 21 ack 40 ------- 3 6.0 7.0 4 53
r 1.50012 6 21 ack 40 ------- 3 6.0 7.0 4 53
+ 1.50012 21 20 ack 40 ------- 3 6.0 7.0 4 53
- 1.50012 21 20 ack 40 ------- 3 6.0 7.0 4 53
r 1.515834 21 20 ack 40 ------- 3 6.0 7.0 4 53
+ 1.515834 20 7 ack 40 ------- 3 6.0 7.0 4 53
- 1.515834 20 7 ack 40 ------- 3 6.0 7.0 4 53
r 1.545837 20 7 ack 40 ------- 3 6.0 7.0 4 53
+ 1.545837 7 20 tcp 1040 ------- 3 7.0 6.0 6 54
- 1.545837 7 20 tcp 1040 ------- 3 7.0 6.0 6 54
r 1.575921 7 20 tcp 1040 ------- 3 7.0 6.0 6 54
+ 1.575921 20 21 tcp 1040 ------- 3 7.0 6.0 6 54
- 1.578605 20 21 tcp 1040 ------- 9 19.0 18.0 2 19
r 1.588605 20 21 tcp 1040 ------- 9 19.0 18.0 1 18
+ 1.588605 21 18 tcp 1040 ------- 9 19.0 18.0 1 18
- 1.588605 21 18 tcp 1040 ------- 9 19.0 18.0 1 18
+ 1.630123 5 20 tcp 1040 ---A--- 2 5.0 4.0 3 55
- 1.630123 5 20 tcp 1040 ---A--- 2 5.0 4.0 3 55
r 1.650206 5 20 tcp 1040 ---A--- 2 5.0 4.0 3 55
+ 1.650206 20 21 tcp 1040 ---A--- 2 5.0 4.0 3 55
+ 1.65558 19 20 tcp 1040 ---A--- 9 19.0 18.0 1 56
- 1.65558 19 20 tcp 1040 ---A--- 9 19.0 18.0 1 56
r 1.678688 21 18 tcp 1040 ------- 9 19.0 18.0 1 18
+ 1.678688 18 21 ack 40 ------- 9 18.0 19.0 1 57
- 1.678688 18 21 ack 40 ------- 9 18.0 19.0 1 57
- 1.727176 20 21 tcp 1040 ---A--- 2 5.0 4.0 1 27
r 1.737176 20 21 tcp 1040 ------- 9 19.0 18.0 2 19
+ 1.737176 21 18 tcp 1040 ------- 9 19.0 18.0 2 19
- 1.737176 21 18 tcp 1040 ------- 9 19.0 18.0 2 19
r 1.745663 19 20 tcp 1040 ---A--- 9 19.0 18.0 1 56
+ 1.745663 20 21 tcp 1040 ---A--- 9 19.0 18.0 1 56
r 1.768691 18 21 ack 40 ------- 9 18.0 19.0 1 57
+ 1.768691 21 20 ack 40 ------- 9 18.0 19.0 1 57
- 1.768691 21 20 ack 40 ------- 9 18.0 19.0 1 57
r 1.784406 21 20 ack 40 ------- 9 18.0 19.0 1 57
+ 1.784406 20 19 ack 40 ------- 9 18.0 19.0 1 57
- 1.784406 20 19 ack 40 ------- 9 18.0 19.0 1 57
r 1.827259 21 18 tcp 1040 ------- 9 19.0 18.0 2 19
+ 1.827259 18 21 ack 40 ------- 9 18.0 19.0 2 58
- 1.827259 18 21 ack 40 ------- 9 18.0 19.0 2 58
r 1.874409 20 19 ack 40 ------- 9 18.0 19.0 1 57
+ 1.874409 19 20 tcp 1040 ------- 9 19.0 18.0 2 59
- 1.874409 19 20 tcp 1040 ------- 9 19.0 18.0 2 59
+ 1.874409 19 20 tcp 1040 ------- 9 19.0 18.0 3 60
- 1.874492 19 20 tcp 1040 ------- 9 19.0 18.0 3 60
- 1.875748 20 21 tcp 1040 ------- 3 7.0 6.0 5 24
r 1.885748 20 21 tcp 1040 ---A--- 2 5.0 4.0 1 27
+ 1.885748 21 4 tcp 1040 ---A--- 2 5.0 4.0 1 27
- 1.885748 21 4 tcp 1040 ---A--- 2 5.0 4.0 1 27
r 1.905831 21 4 tcp 1040 ---A--- 2 5.0 4.0 1 27
+ 1.905831 4 21 ack 40 ------- 2 4.0 5.0 2 61
- 1.905831 4 21 ack 40 ------- 2 4.0 5.0 2 61
r 1.917263 18 21 ack 40 ------- 9 18.0 19.0 2 58
+ 1.917263 21 20 ack 40 ------- 9 18.0 19.0 2 58
- 1.917263 21 20 ack 40 ------- 9 18.0 19.0 2 58
r 1.925834 4 21 ack 40 ------- 2 4.0 5.0 2 61
+ 1.925834 21 20 ack 40 ------- 2 4.0 5.0 2 61
- 1.925834 21 20 ack 40 ------- 2 4.0 5.0 2 61
r 1.932977 21 20 ack 40 ------- 9 18.0 19.0 2 58
+ 1.932977 20 19 ack 40 ------- 9 18.0 19.0 2 58
- 1.932977 20 19 ack 40 ------- 9 18.0 19.0 2 58
r 1.941548 21 20 ack 40 ------- 2 4.0 5.0 2 61
+ 1.941548 20 5 ack 40 ------- 2 4.0 5.0 2 61
- 1.941548 20 5 ack 40 ------- 2 4.0 5.0 2 61
r 1.961552 20 5 ack 40 ------- 2 4.0 5.0 2 61
+ 1.961552 5 20 tcp 1040 ------- 2 5.0 4.0 4 62
- 1.961552 5 20 tcp 1040 ------- 2 5.0 4.0 4 62
r 1.964492 19 20 tcp 1040 ------- 9 19.0 18.0 2 59
+ 1.964492 20 21 tcp 1040 ------- 9 19.0 18.0 2 59
r 1.964575 19 20 tcp 1040 ------- 9 19.0 18.0 3 60
+ 1.964575 20 21 tcp 1040 ------- 9 19.0 18.0 3 60
r 1.981635 5 20 tcp 1040 ------- 2 5.0 4.0 4 62
+ 1.981635 20 21 tcp 1040 ------- 2 5.0 4.0 4 62
r 2.02298 20 19 ack 40 ------- 9 18.0 19.0 2 58
+ 2.02298 19 20 tcp 1040 ------- 9 19.0 18.0 4 63
- 2.02298 19 20 tcp 1040 ------- 9 19.0 18.0 4 63
- 2.024319 20 21 tcp 1040 ------- 3 7.0 6.0 6 25
r 2.034319 20 21 tcp 1040 ------- 3 7.0 6.0 5 24
+ 2.034319 21 6 tcp 1040 ------- 3 7.0 6.0 5 24
- 2.034319 21 6 tcp 1040 ------- 3 7.0 6.0 5 24
r 2.064402 21 6 tcp 1040 ------- 3 7.0 6.0 5 24
+ 2.064402 6 21 ack 40 ------- 3 6.0 7.0 5 64
- 2.064402 6 21 ack 40 ------- 3 6.0 7.0 5 64
r 2.094406 6 21 ack 40 ------- 3 6.0 7.0 5 64
+ 2.094406 21 20 ack 40 ------- 3 6.0 7.0 5 64
- 2.094406 21 20 ack 40 ------- 3 6.0 7.0 5 64
r 2.11012 21 20 ack 40 ------- 3 6.0 7.0 5 64
+ 2.11012 20 7 ack 40 ------- 3 6.0 7.0 5 64
- 2.11012 20 7 ack 40 ------- 3 6.0 7.0 5 64
r 2.113063 19 20 tcp 1040 ------- 9 19.0 18.0 4 63
+ 2.113063 20 21 tcp 1040 ------- 9 19.0 18.0 4 63
r 2.140123 20 7 ack 40 ------- 3 6.0 7.0 5 64
+ 2.140123 7 20 tcp 1040 ------- 3 7.0 6.0 7 65
- 2.140123 7 20 tcp 1040 ------- 3 7.0 6.0 7 65
r 2.170206 7 20 tcp 1040 ------- 3 7.0 6.0 7 65
+ 2.170206 20 21 tcp 1040 ------- 3 7.0 6.0 7 65
- 2.172891 20 21 tcp 40 ------- 4 9.0 8.0 0 26
- 2.178605 20 21 tcp 1040 ------- 2 5.0 4.0 2 29
r 2.182891 20 21 tcp 1040 ------- 3 7.0 6.0 6 25
+ 2.182891 21 6 tcp 1040 ------- 3 7.0 6.0 6 25
- 2.182891 21 6 tcp 1040 ------- 3 7.0 6.0 6 25
r 2.188605 20 21 tcp 40 ------- 4 9.0 8.0 0 26
+ 2.188605 21 8 tcp 40 ------- 4 9.0 8.0 0 26
- 2.188605 21 8 tcp 40 ------- 4 9.0 8.0 0 26
r 2.212974 21 6 tcp 1040 ------- 3 7.0 6.0 6 25
+ 2.212974 6 21 ack 40 ------- 3 6.0 7.0 6 66
- 2.212974 6 21 ack 40 ------- 3 6.0 7.0 6 66
r 2.228608 21 8 tcp 40 ------- 4 9.0 8.0 0 26
+ 2.228608 8 21 ack 40 ------- 4 8.0 9.0 0 67
- 2.228608 8 21 ack 40 ------- 4 8.0 9.0 0 67
r 2.242977 6 21 ack 40 ------- 3 6.0 7.0 6 66
+ 2.242977 21 20 ack 40 ------- 3 6.0 7.0 6 66
- 2.242977 21 20 ack 40 ------- 3 6.0 7.0 6 66
r 2.258691 21 20 ack 40 ------- 3 6.0 7.0 6 66
+ 2.258691 20 7 ack 40 ------- 3 6.0 7.0 6 66
- 2.258691 20 7 ack 40 ------- 3 6.0 7.0 6 66
r 2.268611 8 21 ack 40 ------- 4 8.0 9.0 0 67
+ 2.268611 21 20 ack 40 ------- 4 8.0 9.0 0 67
- 2.268611 21 20 ack 40 ------- 4 8.0 9.0 0 67
r 2.284326 21 20 ack 40 ------- 4 8.0 9.0 0 67
+ 2.284326 20 9 ack 40 ------- 4 8.0 9.0 0 67
- 2.284326 20 9 ack 40 ------- 4 8.0 9.0 0 67
r 2.288694 20 7 ack 40 ------- 3 6.0 7.0 6 66
+ 2.288694 7 20 tcp 1040 ------- 3 7.0 6.0 8 68
- 2.288694 7 20 tcp 1040 ------- 3 7.0 6.0 8 68
+ 2.288694 7 20 tcp 1040 ------- 3 7.0 6.0 9 69
- 2.288778 7 20 tcp 1040 ------- 3 7.0 6.0 9 69
r 2.318778 7 20 tcp 1040 ------- 3 7.0 6.0 8 68
+ 2.318778 20 21 tcp 1040 ------- 3 7.0 6.0 8 68
r 2.318861 7 20 tcp 1040 ------- 3 7.0 6.0 9 69
+ 2.318861 20 21 tcp 1040 ------- 3 7.0 6.0 9 69
r 2.324329 20 9 ack 40 ------- 4 8.0 9.0 0 67
+ 2.324329 9 20 tcp 1040 ------- 4 9.0 8.0 1 70
- 2.324329 9 20 tcp 1040 ------- 4 9.0 8.0 1 70
+ 2.324329 9 20 tcp 1040 ------- 4 9.0 8.0 2 71
- 2.324412 9 20 tcp 1040 ------- 4 9.0 8.0 2 71
- 2.327176 20 21 tcp 1040 ------- 2 5.0 4.0 3 30
r 2.337176 20 21 tcp 1040 ------- 2 5.0 4.0 2 29
+ 2.337176 21 4 tcp 1040 ------- 2 5.0 4.0 2 29
- 2.337176 21 4 tcp 1040 ------- 2 5.0 4.0 2 29
r 2.357259 21 4 tcp 1040 ------- 2 5.0 4.0 2 29
+ 2.357259 4 21 ack 40 ------- 2 4.0 5.0 2 72
- 2.357259 4 21 ack 40 ------- 2 4.0 5.0 2 72
r 2.364412 9 20 tcp 1040 ------- 4 9.0 8.0 1 70
+ 2.364412 20 21 tcp 1040 ------- 4 9.0 8.0 1 70
r 2.364495 9 20 tcp 1040 ------- 4 9.0 8.0 2 71
+ 2.364495 20 21 tcp 1040 ------- 4 9.0 8.0 2 71
r 2.377263 4 21 ack 40 ------- 2 4.0 5.0 2 72
+ 2.377263 21 20 ack 40 ------- 2 4.0 5.0 2 72
- 2.377263 21 20 ack 40 ------- 2 4.0 5.0 2 72
r 2.392977 21 20 ack 40 ------- 2 4.0 5.0 2 72
+ 2.392977 20 5 ack 40 ------- 2 4.0 5.0 2 72
- 2.392977 20 5 ack 40 ------- 2 4.0 5.0 2 72
r 2.41298 20 5 ack 40 ------- 2 4.0 5.0 2 72
+ 2.41298 5 20 tcp 1040 ------- 2 5.0 4.0 5 73
- 2.41298 5 20 tcp 1040 ------- 2 5.0 4.0 5 73
r 2.433063 5 20 tcp 1040 ------- 2 5.0 4.0 5 73
+ 2.433063 20 21 tcp 1040 ------- 2 5.0 4.0 5 73
d 2.433063 20 21 tcp 1040 ------- 2 5.0 4.0 5 73
- 2.475748 20 21 tcp 40 ------- 1 3.0 2.0 0 33
+ 2.475757 1 20 tcp 1040 ---A--- 0 1.0 0.0 1 74
- 2.475757 1 20 tcp 1040 ---A--- 0 1.0 0.0 1 74
r 2.475841 1 20 tcp 1040 ---A--- 0 1.0 0.0 1 74
+ 2.475841 20 21 tcp 1040 ---A--- 0 1.0 0.0 1 74
- 2.481462 20 21 tcp 1040 ------- 0 1.0 0.0 1 36
r 2.485748 20 21 tcp 1040 ------- 2 5.0 4.0 3 30
+ 2.485748 21 4 tcp 1040 ------- 2 5.0 4.0 3 30
- 2.485748 21 4 tcp 1040 ------- 2 5.0 4.0 3 30
r 2.491462 20 21 tcp 40 ------- 1 3.0 2.0 0 33
+ 2.491462 21 2 tcp 40 ------- 1 3.0 2.0 0 33
- 2.491462 21 2 tcp 40 ------- 1 3.0 2.0 0 33
r 2.501465 21 2 tcp 40 ------- 1 3.0 2.0 0 33
+ 2.501465 2 21 ack 40 ------- 1 2.0 3.0 0 75
- 2.501465 2 21 ack 40 ------- 1 2.0 3.0 0 75
r 2.505831 21 4 tcp 1040 ------- 2 5.0 4.0 3 30
+ 2.505831 4 21 ack 40 ------- 2 4.0 5.0 3 76
- 2.505831 4 21 ack 40 ------- 2 4.0 5.0 3 76
r 2.511468 2 21 ack 40 ------- 1 2.0 3.0 0 75
+ 2.511468 21 20 ack 40 ------- 1 2.0 3.0 0 75
- 2.511468 21 20 ack 40 ------- 1 2.0 3.0 0 75
r 2.525834 4 21 ack 40 ------- 2 4.0 5.0 3 76
+ 2.525834 21 20 ack 40 ------- 2 4.0 5.0 3 76
- 2.525834 21 20 ack 40 ------- 2 4.0 5.0 3 76
r 2.527183 21 20 ack 40 ------- 1 2.0 3.0 0 75
+ 2.527183 20 3 ack 40 ------- 1 2.0 3.0 0 75
- 2.527183 20 3 ack 40 ------- 1 2.0 3.0 0 75
r 2.537186 20 3 ack 40 ------- 1 2.0 3.0 0 75
+ 2.537186 3 20 tcp 1040 ------- 1 3.0 2.0 1 77
- 2.537186 3 20 tcp 1040 ------- 1 3.0 2.0 1 77
+ 2.537186 3 20 tcp 1040 ------- 1 3.0 2.0 2 78
- 2.537269 3 20 tcp 1040 ------- 1 3.0 2.0 2 78
r 2.541548 21 20 ack 40 ------- 2 4.0 5.0 3 76
+ 2.541548 20 5 ack 40 ------- 2 4.0 5.0 3 76
- 2.541548 20 5 ack 40 ------- 2 4.0 5.0 3 76
r 2.547269 3 20 tcp 1040 ------- 1 3.0 2.0 1 77
+ 2.547269 20 21 tcp 1040 ------- 1 3.0 2.0 1 77
r 2.547352 3 20 tcp 1040 ------- 1 3.0 2.0 2 78
+ 2.547352 20 21 tcp 1040 ------- 1 3.0 2.0 2 78
r 2.561552 20 5 ack 40 ------- 2 4.0 5.0 3 76
- 2.630033 20 21 tcp 1040 ------- 0 1.0 0.0 2 37
r 2.640033 20 21 tcp 1040 ------- 0 1.0 0.0 1 36
+ 2.640033 21 0 tcp 1040 ------- 0 1.0 0.0 1 36
- 2.640033 21 0 tcp 1040 ------- 0 1.0 0.0 1 36
r 2.640117 21 0 tcp 1040 ------- 0 1.0 0.0 1 36
+ 2.640117 0 21 ack 40 ------- 0 0.0 1.0 1 79
- 2.640117 0 21 ack 40 ------- 0 0.0 1.0 1 79
r 2.64012 0 21 ack 40 ------- 0 0.0 1.0 1 79
+ 2.64012 21 20 ack 40 ------- 0 0.0 1.0 1 79
- 2.64012 21 20 ack 40 ------- 0 0.0 1.0 1 79
+ 2.6529 17 20 tcp 1040 ---A--- 8 17.0 16.0 1 80
- 2.6529 17 20 tcp 1040 ---A--- 8 17.0 16.0 1 80
r 2.655834 21 20 ack 40 ------- 0 0.0 1.0 1 79
+ 2.655834 20 1 ack 40 ------- 0 0.0 1.0 1 79
- 2.655834 20 1 ack 40 ------- 0 0.0 1.0 1 79
r 2.655837 20 1 ack 40 ------- 0 0.0 1.0 1 79
+ 2.655837 1 20 tcp 1040 ------- 0 1.0 0.0 2 81
- 2.655837 1 20 tcp 1040 ------- 0 1.0 0.0 2 81
+ 2.655837 1 20 tcp 1040 ------- 0 1.0 0.0 3 82
r 2.655921 1 20 tcp 1040 ------- 0 1.0 0.0 2 81
+ 2.655921 20 21 tcp 1040 ------- 0 1.0 0.0 2 81
- 2.655921 1 20 tcp 1040 ------- 0 1.0 0.0 3 82
r 2.656004 1 20 tcp 1040 ------- 0 1.0 0.0 3 82
+ 2.656004 20 21 tcp 1040 ------- 0 1.0 0.0 3 82
+ 2.68298 11 20 tcp 1040 ---A--- 5 11.0 10.0 3 83
- 2.68298 11 20 tcp 1040 ---A--- 5 11.0 10.0 3 83
r 2.732983 17 20 tcp 1040 ---A--- 8 17.0 16.0 1 80
+ 2.732983 20 21 tcp 1040 ---A--- 8 17.0 16.0 1 80
r 2.733063 11 20 tcp 1040 ---A--- 5 11.0 10.0 3 83
+ 2.733063 20 21 tcp 1040 ---A--- 5 11.0 10.0 3 83
d 2.733063 20 21 tcp 1040 ---A--- 5 11.0 10.0 3 83
- 2.778605 20 21 tcp 1040 ------- 8 17.0 16.0 1 31
r 2.788605 20 21 tcp 1040 ------- 0 1.0 0.0 2 37
+ 2.788605 21 0 tcp 1040 ------- 0 1.0 0.0 2 37
- 2.788605 21 0 tcp 1040 ------- 0 1.0 0.0 2 37
r 2.788688 21 0 tcp 1040 ------- 0 1.0 0.0 2 37
+ 2.788688 0 21 ack 40 ------- 0 0.0 1.0 2 84
- 2.788688 0 21 ack 40 ------- 0 0.0 1.0 2 84
r 2.788691 0 21 ack 40 ------- 0 0.0 1.0 2 84
+ 2.788691 21 20 ack 40 ------- 0 0.0 1.0 2 84
- 2.788691 21 20 ack 40 ------- 0 0.0 1.0 2 84
r 2.804406 21 20 ack 40 ------- 0 0.0 1.0 2 84
+ 2.804406 20 1 ack 40 ------- 0 0.0 1.0 2 84
- 2.804406 20 1 ack 40 ------- 0 0.0 1.0 2 84
r 2.804409 20 1 ack 40 ------- 0 0.0 1.0 2 84
+ 2.804409 1 20 tcp 1040 ------- 0 1.0 0.0 4 85
- 2.804409 1 20 tcp 1040 ------- 0 1.0 0.0 4 85
r 2.804492 1 20 tcp 1040 ------- 0 1.0 0.0 4 85
+ 2.804492 20 21 tcp 1040 ------- 0 1.0 0.0 4 85
- 2.927176 20 21 tcp 1040 ------- 8 17.0 16.0 2 32
r 2.937176 20 21 tcp 1040 ------- 8 17.0 16.0 1 31
+ 2.937176 21 16 tcp 1040 ------- 8 17.0 16.0 1 31
- 2.937176 21 16 tcp 1040 ------- 8 17.0 16.0 1 31
r 3.017259 21 16 tcp 1040 ------- 8 17.0 16.0 1 31
+ 3.017259 16 21 ack 40 ------- 8 16.0 17.0 1 86
- 3.017259 16 21 ack 40 ------- 8 16.0 17.0 1 86
- 3.075748 20 21 tcp 40 ------- 6 13.0 12.0 0 38
- 3.081462 20 21 tcp 1040 ------- 2 5.0 4.0 4 39
r 3.085748 20 21 tcp 1040 ------- 8 17.0 16.0 2 32
+ 3.085748 21 16 tcp 1040 ------- 8 17.0 16.0 2 32
- 3.085748 21 16 tcp 1040 ------- 8 17.0 16.0 2 32
r 3.091462 20 21 tcp 40 ------- 6 13.0 12.0 0 38
+ 3.091462 21 12 tcp 40 ------- 6 13.0 12.0 0 38
- 3.091462 21 12 tcp 40 ------- 6 13.0 12.0 0 38
r 3.097263 16 21 ack 40 ------- 8 16.0 17.0 1 86
+ 3.097263 21 20 ack 40 ------- 8 16.0 17.0 1 86
- 3.097263 21 20 ack 40 ------- 8 16.0 17.0 1 86